# vtk DataFile Version 2.0
matlabPolyData
ASCII
DATASET POLYDATA
POINTS 11682 float
-34.091300 50.031800 -33.039700
-34.384700 49.632800 -33.097200
-34.635200 49.206100 -33.167100
-34.862000 48.766300 -33.237600
-35.071400 48.317400 -33.305200
-35.250800 47.855000 -33.368500
-35.411400 47.386200 -33.432200
-35.528700 46.905700 -33.500900
-35.602100 46.417400 -33.577300
-35.626900 45.925600 -33.663600
-35.647700 45.433000 -33.746500
-35.661400 44.939000 -33.822900
-35.669300 44.444100 -33.893500
-35.671500 43.948200 -33.957500
-35.671600 43.452000 -34.018600
-35.668800 42.955100 -34.073800
-35.664500 42.457500 -34.123000
-35.660000 41.959400 -34.166100
-35.655200 41.460900 -34.204500
-35.650700 40.962300 -34.241500
-35.647500 40.463500 -34.275300
-35.646300 39.964400 -34.305100
-35.653300 39.464900 -34.325900
-35.664600 38.965300 -34.342500
-35.684200 38.465800 -34.349600
-35.712800 37.966700 -34.345000
-35.734500 37.467500 -34.325500
-35.750900 36.968400 -34.301900
-35.757300 36.469500 -34.270500
-35.754900 35.971000 -34.231900
-35.744600 35.473000 -34.188700
-35.733300 34.975000 -34.145300
-35.720500 34.477100 -34.101600
-35.707200 33.979100 -34.057900
-35.690500 33.481300 -34.014400
-35.671700 32.983600 -33.970500
-35.648900 32.486200 -33.925600
-35.622200 31.989000 -33.879200
-35.596500 31.492600 -33.825100
-35.572900 30.996700 -33.766200
-35.553800 30.502000 -33.696400
-35.539300 30.009300 -33.613000
-35.531900 29.522300 -33.499900
-35.527200 29.038100 -33.375800
-35.528700 28.559900 -33.230200
-35.537200 28.088200 -33.065100
-35.545200 27.627700 -32.870300
-35.547700 27.172200 -32.664700
-35.541700 26.726600 -32.438300
-35.530800 26.296000 -32.184300
-35.522000 25.874300 -31.915800
-35.514100 25.453200 -31.646400
-35.503200 25.034000 -31.374100
-35.479300 24.619300 -31.095900
-35.430300 24.212600 -30.809300
-35.375600 23.806900 -30.522200
-35.318200 23.399700 -30.237900
-35.254300 22.989800 -29.958700
-35.182600 22.578200 -29.684100
-35.096700 22.165600 -29.415200
-35.002100 21.754500 -29.146600
-34.894500 21.351400 -28.871100
-34.777700 20.954400 -28.590700
-34.643200 20.570000 -28.300900
-34.491100 20.198700 -28.002800
-34.314100 19.846700 -27.694900
-34.130000 19.499600 -27.385800
-33.931800 19.161500 -27.075400
-33.708900 18.836200 -26.768000
-33.476400 18.516800 -26.461800
-33.222500 18.213100 -26.156700
-32.923700 17.955600 -25.849500
-32.587300 17.756600 -25.537600
-32.233700 17.597900 -25.224300
-31.845100 17.544900 -24.914100
-31.457700 17.512800 -24.600300
-31.074000 17.524400 -24.280700
-30.700300 17.626400 -23.964600
-30.328000 17.732500 -23.648200
-29.957900 17.840400 -23.329900
-29.588000 17.937800 -23.007900
-29.222700 18.066300 -22.691600
-28.863900 18.222000 -22.381500
-28.524300 18.449200 -22.093300
-28.174700 18.685700 -21.825200
-27.816300 18.924000 -21.571400
-27.436500 19.166000 -21.355900
-27.035300 19.420600 -21.208400
-26.612300 19.684900 -21.172700
-26.186600 19.945800 -21.149900
-25.755800 20.199200 -21.150500
-25.322100 20.447500 -21.167400
-24.887000 20.691900 -21.198400
-24.442800 20.915900 -21.248700
-23.993300 21.125500 -21.308900
-23.533200 21.305200 -21.384800
-23.064700 21.456600 -21.470500
-22.599200 21.610200 -21.569000
-22.137300 21.769600 -21.674600
-21.682200 21.938400 -21.794000
-21.232700 22.110100 -21.929800
-20.785200 22.278000 -22.076800
-20.337600 22.445600 -22.223400
-19.891300 22.615300 -22.371900
-19.450900 22.793700 -22.527200
-19.025000 22.997900 -22.691300
-18.601100 23.210000 -22.850200
-18.191200 23.453900 -23.000000
-17.781200 23.697900 -23.149800
-17.381600 23.961000 -23.294500
-16.988700 24.232900 -23.441900
-16.589200 24.502200 -23.574800
-16.179400 24.768900 -23.677700
-15.763000 25.038500 -23.733800
-15.344100 25.310200 -23.761000
-28.748000 50.233800 -39.985700
-29.043500 49.849000 -40.105600
-29.360900 49.476700 -40.207900
-29.708900 49.127800 -40.292400
-30.070500 48.794500 -40.380400
-30.449600 48.483800 -40.478400
-30.827100 48.176800 -40.593800
-31.200900 47.864800 -40.706900
-31.567500 47.533400 -40.783100
-31.935500 47.200500 -40.839400
-32.296700 46.856200 -40.849900
-32.643000 46.497700 -40.817700
-32.975000 46.130700 -40.745800
-33.292800 45.755500 -40.655200
-33.583200 45.366600 -40.540600
-33.826100 44.958500 -40.386500
-34.040000 44.544000 -40.206800
-34.242800 44.131000 -40.011200
-34.448700 43.728300 -39.798100
-34.660000 43.332000 -39.578600
-34.885300 42.952200 -39.344500
-35.138600 42.604900 -39.089200
-35.406700 42.267400 -38.835800
-35.690900 41.936400 -38.591400
-35.977800 41.603000 -38.353900
-36.270900 41.266400 -38.128500
-36.574000 40.931800 -37.913900
-36.895300 40.597300 -37.727100
-37.207000 40.235400 -37.586100
-37.492200 39.833800 -37.503800
-37.736800 39.401100 -37.448900
-37.973900 38.964800 -37.391100
-38.203600 38.526200 -37.321600
-38.440100 38.094500 -37.234600
-38.707700 37.687400 -37.122500
-38.965000 37.275400 -37.003700
-39.201300 36.858300 -36.861800
-39.429700 36.440900 -36.708600
-39.643300 36.023700 -36.534900
-39.846300 35.608900 -36.343500
-40.031200 35.190400 -36.141800
-40.208200 34.768800 -35.939900
-40.353300 34.335400 -35.736900
-40.487100 33.898900 -35.533500
-40.589100 33.454200 -35.329000
-40.680300 33.007400 -35.124100
-40.737700 32.553700 -34.922100
-40.788500 32.098200 -34.722300
-40.827200 31.640100 -34.525900
-40.861000 31.181600 -34.329300
-40.896700 30.723700 -34.131700
-40.935200 30.266900 -33.932000
-40.974400 29.811000 -33.730500
-41.012600 29.355600 -33.527700
-41.048400 28.899600 -33.325700
-41.078100 28.442500 -33.125400
-41.094900 27.983500 -32.927600
-41.108400 27.524300 -32.730400
-41.108600 27.064600 -32.533700
-41.103500 26.604900 -32.337100
-41.088200 26.145500 -32.140600
-41.064200 25.686300 -31.944300
-41.027800 25.226600 -31.750900
-40.984700 24.765900 -31.561800
-40.926300 24.303300 -31.381200
-40.850100 23.840100 -31.209500
-40.743100 23.379300 -31.047500
-40.613200 22.927500 -30.877300
-40.471700 22.480700 -30.703700
-40.308100 22.044100 -30.523400
-40.125600 21.617300 -30.337900
-39.923400 21.202000 -30.146400
-39.716900 20.789200 -29.954200
-39.503300 20.380400 -29.761200
-39.284700 19.973900 -29.569100
-39.062100 19.567900 -29.380300
-38.815700 19.175800 -29.191800
-38.554100 18.794700 -29.002100
-38.256100 18.444600 -28.805500
-37.950400 18.103300 -28.605600
-37.632100 17.778400 -28.398200
-37.302000 17.475000 -28.176900
-36.967400 17.180100 -27.951200
-36.617400 16.915700 -27.711200
-36.261600 16.664500 -27.466000
-35.891300 16.445200 -27.212300
-35.495700 16.284300 -26.952200
-35.100600 16.129200 -26.688100
-34.705600 15.987400 -26.416500
-34.309800 15.872300 -26.133400
-33.914200 15.770000 -25.845600
-33.518800 15.699500 -25.548400
-33.122100 15.672500 -25.246400
-32.719400 15.720200 -24.953800
-32.326300 15.764600 -24.648100
-31.939000 15.811800 -24.335400
-31.562800 15.876300 -24.012800
-31.197400 15.978700 -23.688300
-30.845800 16.138100 -23.372200
-30.523200 16.388600 -23.083900
-30.199700 16.631200 -22.789800
-29.875500 16.872600 -22.495500
-29.551500 17.117900 -22.204200
-29.231600 17.378300 -21.921900
-28.919500 17.659500 -21.651000
-28.618100 17.962300 -21.391300
-28.315000 18.261400 -21.129300
-28.005600 18.558700 -20.872600
-27.685700 18.866700 -20.644700
-27.342300 19.190400 -20.484900
-26.979200 19.522900 -20.408800
-26.597000 19.845300 -20.408300
-26.209900 20.161200 -20.419200
-25.812000 20.461500 -20.454500
-25.405100 20.744800 -20.516400
-24.988300 21.005600 -20.607400
-24.567700 21.258000 -20.703500
-24.139300 21.492100 -20.810800
-23.704400 21.707600 -20.930700
-23.260900 21.896300 -21.063700
-22.817300 22.086600 -21.193900
-22.375600 22.281900 -21.323300
-21.937300 22.485000 -21.452300
-21.500400 22.690000 -21.583000
-21.061500 22.887400 -21.718700
-20.621900 23.082500 -21.855200
-20.183000 23.273400 -22.000000
-19.743800 23.455900 -22.153700
-19.306000 23.631000 -22.320000
-18.869600 23.805900 -22.490200
-18.432000 23.996700 -22.638500
-17.998300 24.204800 -22.774500
-17.574100 24.435200 -22.903900
-17.155700 24.677300 -23.031700
-16.741400 24.934000 -23.142700
-16.321200 25.192300 -23.222100
-15.899600 25.457600 -23.258200
-15.478600 25.727000 -23.269400
-15.070200 26.012400 -23.227200
-14.701400 26.329800 -23.114000
-14.341400 26.650700 -22.982100
-13.985400 26.958500 -22.813700
-13.627100 27.253300 -22.627400
-13.266900 27.541300 -22.434400
-12.919300 27.848600 -22.248400
-12.578800 28.166200 -22.066300
-33.528600 53.040900 -38.447700
-33.215600 52.663100 -38.354900
-32.876600 52.309200 -38.256200
-32.545800 51.944300 -38.169800
-32.230800 51.563900 -38.096100
-31.953400 51.151300 -38.053600
-31.724100 50.708300 -38.049800
-31.584600 50.230000 -38.091800
-31.500700 49.741300 -38.133600
-31.506800 49.244200 -38.171200
-31.600700 48.753900 -38.200000
-31.725600 48.270200 -38.219800
-31.865600 47.790600 -38.230200
-32.029900 47.318500 -38.224800
-32.212800 46.853600 -38.209200
-32.411400 46.395300 -38.187300
-32.628900 45.946000 -38.158200
-32.855300 45.501500 -38.125300
-33.102000 45.068900 -38.084000
-33.373700 44.653000 -38.026900
-33.649900 44.241200 -37.963400
-33.937300 43.840400 -37.881100
-34.229600 43.444600 -37.792700
-34.535100 43.061900 -37.692500
-34.860200 42.699700 -37.579600
-35.213700 42.363000 -37.471600
-35.574300 42.029200 -37.380600
-35.941100 41.693100 -37.330400
-36.306800 41.354500 -37.290800
-36.672400 41.014500 -37.264200
-37.005100 40.641300 -37.263300
-37.310800 40.247000 -37.277400
-37.582100 39.827500 -37.292500
-37.819400 39.387400 -37.287300
-38.051400 38.945100 -37.269100
-38.280000 38.502700 -37.225200
-38.518800 38.069300 -37.155200
-38.791300 37.662700 -37.053000
-39.047400 37.249700 -36.935500
-39.294500 36.835100 -36.805800
-39.524100 36.418400 -36.652600
-39.739700 36.002300 -36.478700
-39.945500 35.589200 -36.286600
-40.133200 35.172300 -36.084200
-40.303000 34.748100 -35.881100
-40.460100 34.319700 -35.677200
-40.593900 33.883700 -35.472600
-40.697700 33.440000 -35.266800
[...]
POINT_DATA 11682 
TENSORS tensor float
0.001080 0.000050 -0.000056 0.000050 0.001078 0.000101 -0.000056 0.000101 0.000706 
0.000945 0.000079 -0.000031 0.000079 0.000997 0.000100 -0.000031 0.000100 0.000570 
0.000813 0.000107 -0.000012 0.000107 0.000931 0.000101 -0.000012 0.000101 0.000434 
0.000691 0.000132 0.000002 0.000132 0.000882 0.000102 0.000002 0.000102 0.000301 
0.000581 0.000155 0.000014 0.000155 0.000849 0.000104 0.000014 0.000104 0.000177 
0.000542 0.000162 0.000017 0.000162 0.000888 0.000107 0.000017 0.000107 0.000137 
0.000620 0.000141 0.000006 0.000141 0.001038 0.000114 0.000006 0.000114 0.000246 
0.000715 0.000103 -0.000012 0.000103 0.001198 0.000130 -0.000012 0.000130 0.000383 
0.000803 0.000067 -0.000028 0.000067 0.001338 0.000145 -0.000028 0.000145 0.000503 
0.000879 0.000037 -0.000039 0.000037 0.001445 0.000155 -0.000039 0.000155 0.000601 
0.000882 0.000026 -0.000038 0.000026 0.001440 0.000136 -0.000038 0.000136 0.000626 
0.000883 0.000018 -0.000040 0.000018 0.001447 0.000122 -0.000040 0.000122 0.000645 
0.000883 0.000013 -0.000042 0.000013 0.001464 0.000113 -0.000042 0.000113 0.000658 
0.000882 0.000009 -0.000046 0.000009 0.001489 0.000108 -0.000046 0.000108 0.000668 
0.000869 0.000003 -0.000047 0.000003 0.001482 0.000095 -0.000047 0.000095 0.000679 
0.000855 0.000000 -0.000048 0.000000 0.001479 0.000083 -0.000048 0.000083 0.000690 
0.000838 -0.000002 -0.000048 -0.000002 0.001480 0.000072 -0.000048 0.000072 0.000701 
0.000819 -0.000002 -0.000048 -0.000002 0.001483 0.000062 -0.000048 0.000062 0.000711 
0.000811 -0.000002 -0.000050 -0.000002 0.001455 0.000057 -0.000050 0.000057 0.000710 
0.000802 -0.000002 -0.000052 -0.000002 0.001425 0.000051 -0.000052 0.000051 0.000707 
0.000792 0.000000 -0.000054 0.000000 0.001394 0.000044 -0.000054 0.000044 0.000703 
0.000781 0.000003 -0.000056 0.000003 0.001361 0.000037 -0.000056 0.000037 0.000697 
0.000774 0.000010 -0.000054 0.000010 0.001357 0.000028 -0.000054 0.000028 0.000701 
0.000768 0.000019 -0.000053 0.000019 0.001352 0.000018 -0.000053 0.000018 0.000704 
0.000762 0.000028 -0.000053 0.000028 0.001347 0.000005 -0.000053 0.000005 0.000707 
0.000758 0.000038 -0.000053 0.000038 0.001341 -0.000010 -0.000053 -0.000010 0.000708 
0.000711 0.000025 -0.000048 0.000025 0.001333 -0.000024 -0.000048 -0.000024 0.000680 
0.000662 0.000012 -0.000041 0.000012 0.001324 -0.000037 -0.000041 -0.000037 0.000650 
0.000614 -0.000000 -0.000034 -0.000000 0.001313 -0.000049 -0.000034 -0.000049 0.000621 
0.000568 -0.000012 -0.000026 -0.000012 0.001300 -0.000060 -0.000026 -0.000060 0.000592 
0.000537 -0.000018 -0.000020 -0.000018 0.001306 -0.000065 -0.000020 -0.000065 0.000566 
0.000507 -0.000022 -0.000015 -0.000022 0.001316 -0.000069 -0.000015 -0.000069 0.000540 
0.000478 -0.000024 -0.000010 -0.000024 0.001327 -0.000072 -0.000010 -0.000072 0.000513 
0.000449 -0.000024 -0.000006 -0.000024 0.001340 -0.000076 -0.000006 -0.000076 0.000486 
0.000440 -0.000031 -0.000007 -0.000031 0.001345 -0.000077 -0.000007 -0.000077 0.000475 
0.000434 -0.000040 -0.000011 -0.000040 0.001349 -0.000080 -0.000011 -0.000080 0.000464 
0.000427 -0.000048 -0.000015 -0.000048 0.001353 -0.000084 -0.000015 -0.000084 0.000451 
0.000420 -0.000057 -0.000021 -0.000057 0.001358 -0.000090 -0.000021 -0.000090 0.000436 
0.000439 -0.000051 -0.000023 -0.000051 0.001357 -0.000101 -0.000023 -0.000101 0.000459 
0.000462 -0.000042 -0.000024 -0.000042 0.001356 -0.000114 -0.000024 -0.000114 0.000490 
0.000486 -0.000034 -0.000024 -0.000034 0.001355 -0.000132 -0.000024 -0.000132 0.000523 
0.000510 -0.000026 -0.000023 -0.000026 0.001354 -0.000154 -0.000023 -0.000154 0.000558 
0.000533 -0.000020 -0.000033 -0.000020 0.001334 -0.000185 -0.000033 -0.000185 0.000584 
0.000555 -0.000015 -0.000043 -0.000015 0.001311 -0.000215 -0.000043 -0.000215 0.000606 
0.000574 -0.000009 -0.000052 -0.000009 0.001287 -0.000243 -0.000052 -0.000243 0.000624 
0.000590 -0.000002 -0.000059 -0.000002 0.001264 -0.000268 -0.000059 -0.000268 0.000639 
0.000580 -0.000007 -0.000050 -0.000007 0.001235 -0.000305 -0.000050 -0.000305 0.000641 
0.000559 -0.000021 -0.000034 -0.000021 0.001203 -0.000350 -0.000034 -0.000350 0.000643 
0.000542 -0.000029 -0.000023 -0.000029 0.001173 -0.000394 -0.000023 -0.000394 0.000651 
0.000530 -0.000032 -0.000017 -0.000032 0.001142 -0.000432 -0.000017 -0.000432 0.000666 
0.000520 -0.000029 -0.000016 -0.000029 0.001114 -0.000462 -0.000016 -0.000462 0.000684 
0.000504 -0.000020 -0.000009 -0.000020 0.001097 -0.000448 -0.000009 -0.000448 0.000688 
0.000511 -0.000022 0.000011 -0.000022 0.001074 -0.000436 0.000011 -0.000436 0.000697 
0.000541 -0.000034 0.000043 -0.000034 0.001044 -0.000425 0.000043 -0.000425 0.000713 
0.000572 -0.000047 0.000063 -0.000047 0.001031 -0.000419 0.000063 -0.000419 0.000727 
0.000581 -0.000056 0.000063 -0.000056 0.001024 -0.000419 0.000063 -0.000419 0.000724 
0.000567 -0.000068 0.000059 -0.000068 0.001006 -0.000413 0.000059 -0.000413 0.000689 
0.000547 -0.000081 0.000058 -0.000081 0.000990 -0.000410 0.000058 -0.000410 0.000657 
0.000523 -0.000096 0.000062 -0.000096 0.000979 -0.000410 0.000062 -0.000410 0.000629 
0.000496 -0.000113 0.000070 -0.000113 0.000968 -0.000411 0.000070 -0.000411 0.000606 
0.000483 -0.000124 0.000085 -0.000124 0.000963 -0.000413 0.000085 -0.000413 0.000600 
0.000502 -0.000126 0.000106 -0.000126 0.000941 -0.000397 0.000106 -0.000397 0.000624 
0.000529 -0.000129 0.000125 -0.000129 0.000906 -0.000366 0.000125 -0.000366 0.000659 
0.000558 -0.000129 0.000143 -0.000129 0.000882 -0.000333 0.000143 -0.000333 0.000693 
0.000591 -0.000124 0.000159 -0.000124 0.000869 -0.000300 0.000159 -0.000300 0.000725 
0.000628 -0.000117 0.000169 -0.000117 0.000857 -0.000272 0.000169 -0.000272 0.000746 
0.000657 -0.000106 0.000169 -0.000106 0.000834 -0.000251 0.000169 -0.000251 0.000739 
0.000680 -0.000092 0.000169 -0.000092 0.000815 -0.000231 0.000169 -0.000231 0.000725 
0.000678 -0.000087 0.000168 -0.000087 0.000783 -0.000205 0.000168 -0.000205 0.000697 
0.000668 -0.000079 0.000167 -0.000079 0.000748 -0.000176 0.000167 -0.000176 0.000667 
0.000657 -0.000063 0.000166 -0.000063 0.000712 -0.000143 0.000166 -0.000143 0.000635 
0.000652 -0.000037 0.000164 -0.000037 0.000678 -0.000110 0.000164 -0.000110 0.000600 
0.000661 -0.000005 0.000164 -0.000005 0.000665 -0.000091 0.000164 -0.000091 0.000581 
0.000683 0.000021 0.000174 0.000021 0.000671 -0.000083 0.000174 -0.000083 0.000586 
0.000699 0.000035 0.000184 0.000035 0.000678 -0.000071 0.000184 -0.000071 0.000598 
0.000694 0.000037 0.000188 0.000037 0.000679 -0.000051 0.000188 -0.000051 0.000617 
0.000680 0.000041 0.000182 0.000041 0.000679 -0.000032 0.000182 -0.000032 0.000624 
0.000658 0.000044 0.000163 0.000044 0.000683 -0.000012 0.000163 -0.000012 0.000619 
0.000641 0.000033 0.000145 0.000033 0.000676 -0.000004 0.000145 -0.000004 0.000606 
0.000630 0.000021 0.000134 0.000021 0.000665 0.000005 0.000134 0.000005 0.000596 
0.000626 0.000009 0.000130 0.000009 0.000652 0.000015 0.000130 0.000015 0.000590 
0.000650 0.000013 0.000136 0.000013 0.000678 0.000023 0.000136 0.000023 0.000605 
0.000671 0.000023 0.000145 0.000023 0.000709 0.000032 0.000145 0.000032 0.000620 
0.000706 0.000034 0.000140 0.000034 0.000746 0.000040 0.000140 0.000040 0.000651 
0.000781 0.000048 0.000123 0.000048 0.000800 0.000031 0.000123 0.000031 0.000720 
0.000846 0.000066 0.000103 0.000066 0.000832 0.000019 0.000103 0.000019 0.000777 
0.000890 0.000086 0.000078 0.000086 0.000837 0.000006 0.000078 0.000006 0.000812 
0.000920 0.000106 0.000047 0.000106 0.000835 -0.000008 0.000047 -0.000008 0.000829 
0.000978 0.000121 0.000018 0.000121 0.000862 -0.000003 0.000018 -0.000003 0.000855 
0.001038 0.000134 -0.000001 0.000134 0.000894 0.000011 -0.000001 0.000011 0.000874 
0.001095 0.000148 -0.000019 0.000148 0.000925 0.000020 -0.000019 0.000020 0.000896 
0.001152 0.000164 -0.000032 0.000164 0.000960 0.000025 -0.000032 0.000025 0.000922 
0.001202 0.000174 -0.000041 0.000174 0.000996 0.000029 -0.000041 0.000029 0.000954 
0.001223 0.000148 -0.000052 0.000148 0.001017 0.000031 -0.000052 0.000031 0.000978 
0.001245 0.000123 -0.000060 0.000123 0.001030 0.000030 -0.000060 0.000030 0.000992 
0.001276 0.000105 -0.000067 0.000105 0.001043 0.000030 -0.000067 0.000030 0.001007 
0.001309 0.000093 -0.000072 0.000093 0.001050 0.000030 -0.000072 0.000030 0.001017 
0.001313 0.000108 -0.000077 0.000108 0.001060 0.000032 -0.000077 0.000032 0.001050 
0.001313 0.000121 -0.000084 0.000121 0.001067 0.000035 -0.000084 0.000035 0.001083 
0.001314 0.000131 -0.000091 0.000131 0.001073 0.000038 -0.000091 0.000038 0.001114 
0.001316 0.000137 -0.000098 0.000137 0.001076 0.000041 -0.000098 0.000041 0.001145 
0.001335 0.000127 -0.000093 0.000127 0.001110 0.000040 -0.000093 0.000040 0.001175 
0.001358 0.000111 -0.000087 0.000111 0.001158 0.000033 -0.000087 0.000033 0.001199 
0.001376 0.000100 -0.000085 0.000100 0.001204 0.000021 -0.000085 0.000021 0.001217 
0.001390 0.000094 -0.000088 0.000094 0.001244 0.000003 -0.000088 0.000003 0.001225 
0.001386 0.000092 -0.000089 0.000092 0.001257 -0.000020 -0.000089 -0.000020 0.001208 
0.001343 0.000089 -0.000081 0.000089 0.001225 -0.000032 -0.000081 -0.000032 0.001151 
0.001269 0.000091 -0.000076 0.000091 0.001170 -0.000046 -0.000076 -0.000046 0.001069 
0.001254 0.000094 -0.000071 0.000094 0.001165 -0.000039 -0.000071 -0.000039 0.001063 
0.001232 0.000103 -0.000072 0.000103 0.001160 -0.000040 -0.000072 -0.000040 0.001065 
0.001212 0.000101 -0.000069 0.000101 0.001144 -0.000030 -0.000069 -0.000030 0.001060 
0.001180 0.000087 -0.000058 0.000087 0.001116 -0.000013 -0.000058 -0.000013 0.001030 
0.001132 0.000071 -0.000042 0.000071 0.001076 0.000000 -0.000042 0.000000 0.000977 
0.001068 0.000055 -0.000021 0.000055 0.001021 0.000011 -0.000021 0.000011 0.000900 
0.000996 0.000041 0.000006 0.000041 0.000961 0.000020 0.000006 0.000020 0.000811 
0.001156 0.000029 0.000066 0.000029 0.001192 0.000050 0.000066 0.000050 0.000929 
0.001202 0.000062 0.000064 0.000062 0.001240 0.000039 0.000064 0.000039 0.000990 
0.001244 0.000094 0.000065 0.000094 0.001281 0.000023 0.000065 0.000023 0.001048 
0.001261 0.000110 0.000066 0.000110 0.001275 0.000011 0.000066 0.000011 0.001069 
0.001252 0.000111 0.000063 0.000111 0.001226 0.000015 0.000063 0.000015 0.001059 
0.001259 0.000120 0.000057 0.000120 0.001209 0.000025 0.000057 0.000025 0.001085 
0.001250 0.000120 0.000051 0.000120 0.001204 0.000033 0.000051 0.000033 0.001107 
0.001247 0.000119 0.000043 0.000119 0.001213 0.000031 0.000043 0.000031 0.001129 
0.001243 0.000112 0.000040 0.000112 0.001226 0.000009 0.000040 0.000009 0.001123 
0.001234 0.000108 0.000053 0.000108 0.001225 -0.000032 0.000053 -0.000032 0.001080 
0.001234 0.000125 0.000064 0.000125 0.001230 -0.000076 0.000064 -0.000076 0.001046 
0.001240 0.000163 0.000072 0.000163 0.001236 -0.000120 0.000072 -0.000120 0.001025 
0.001238 0.000209 0.000077 0.000209 0.001232 -0.000157 0.000077 -0.000157 0.001010 
0.001185 0.000233 0.000074 0.000233 0.001200 -0.000175 0.000074 -0.000175 0.000974 
0.001052 0.000216 0.000059 0.000216 0.001143 -0.000191 0.000059 -0.000191 0.000903 
0.000948 0.000214 0.000038 0.000214 0.001112 -0.000210 0.000038 -0.000210 0.000852 
0.000870 0.000223 0.000013 0.000223 0.001094 -0.000229 0.000013 -0.000229 0.000818 
0.000815 0.000237 -0.000015 0.000237 0.001078 -0.000246 -0.000015 -0.000246 0.000800 
0.000773 0.000239 -0.000038 0.000239 0.001032 -0.000238 -0.000038 -0.000238 0.000793 
0.000744 0.000244 -0.000065 0.000244 0.000982 -0.000228 -0.000065 -0.000228 0.000795 
0.000724 0.000257 -0.000097 0.000257 0.000925 -0.000218 -0.000097 -0.000218 0.000806 
0.000733 0.000266 -0.000116 0.000266 0.000875 -0.000198 -0.000116 -0.000198 0.000830 
0.000779 0.000264 -0.000115 0.000264 0.000879 -0.000175 -0.000115 -0.000175 0.000865 
0.000831 0.000255 -0.000109 0.000255 0.000895 -0.000146 -0.000109 -0.000146 0.000898 
0.000864 0.000225 -0.000091 0.000225 0.000926 -0.000114 -0.000091 -0.000114 0.000919 
0.000892 0.000198 -0.000082 0.000198 0.000947 -0.000087 -0.000082 -0.000087 0.000935 
0.000916 0.000176 -0.000082 0.000176 0.000956 -0.000061 -0.000082 -0.000061 0.000942 
0.000928 0.000160 -0.000081 0.000160 0.000968 -0.000036 -0.000081 -0.000036 0.000938 
0.000922 0.000165 -0.000060 0.000165 0.001026 -0.000018 -0.000060 -0.000018 0.000926 
0.000913 0.000177 -0.000039 0.000177 0.001072 -0.000018 -0.000039 -0.000018 0.000921 
0.000888 0.000176 -0.000024 0.000176 0.001101 -0.000025 -0.000024 -0.000025 0.000900 
0.000881 0.000176 -0.000018 0.000176 0.001126 -0.000037 -0.000018 -0.000037 0.000886 
0.000897 0.000183 -0.000020 0.000183 0.001147 -0.000054 -0.000020 -0.000054 0.000884 
0.000938 0.000196 -0.000028 0.000196 0.001165 -0.000071 -0.000028 -0.000071 0.000900 
0.000993 0.000216 -0.000036 0.000216 0.001170 -0.000088 -0.000036 -0.000088 0.000932 
0.000969 0.000217 -0.000018 0.000217 0.001159 -0.000102 -0.000018 -0.000102 0.000930 
0.000919 0.000213 -0.000016 0.000213 0.001137 -0.000137 -0.000016 -0.000137 0.000875 
0.000880 0.000213 -0.000021 0.000213 0.001120 -0.000179 -0.000021 -0.000179 0.000819 
0.000852 0.000214 -0.000032 0.000214 0.001107 -0.000224 -0.000032 -0.000224 0.000765 
0.000839 0.000214 -0.000047 0.000214 0.001097 -0.000273 -0.000047 -0.000273 0.000720 
0.000834 0.000200 -0.000058 0.000200 0.001119 -0.000294 -0.000058 -0.000294 0.000686 
0.000829 0.000180 -0.000064 0.000180 0.001144 -0.000307 -0.000064 -0.000307 0.000661 
0.000803 0.000157 -0.000067 0.000157 0.001164 -0.000315 -0.000067 -0.000315 0.000643 
0.000767 0.000136 -0.000068 0.000136 0.001184 -0.000323 -0.000068 -0.000323 0.000633 
0.000741 0.000117 -0.000067 0.000117 0.001207 -0.000335 -0.000067 -0.000335 0.000626 
0.000719 0.000087 -0.000063 0.000087 0.001207 -0.000324 -0.000063 -0.000324 0.000636 
0.000690 0.000060 -0.000054 0.000060 0.001203 -0.000316 -0.000054 -0.000316 0.000627 
0.000659 0.000043 -0.000049 0.000043 0.001190 -0.000310 -0.000049 -0.000310 0.000599 
0.000629 0.000029 -0.000049 0.000029 0.001181 -0.000313 -0.000049 -0.000313 0.000573 
0.000608 0.000032 -0.000047 0.000032 0.001176 -0.000322 -0.000047 -0.000322 0.000557 
0.000590 0.000042 -0.000042 0.000042 0.001173 -0.000332 -0.000042 -0.000332 0.000550 
0.000568 0.000049 -0.000036 0.000049 0.001171 -0.000340 -0.000036 -0.000340 0.000544 
0.000543 0.000055 -0.000030 0.000055 0.001170 -0.000347 -0.000030 -0.000347 0.000541 
0.000519 0.000057 -0.000024 0.000057 0.001169 -0.000352 -0.000024 -0.000352 0.000535 
0.000521 0.000049 -0.000024 0.000049 0.001170 -0.000355 -0.000024 -0.000355 0.000519 
0.000522 0.000038 -0.000019 0.000038 0.001181 -0.000359 -0.000019 -0.000359 0.000512 
0.000525 0.000025 -0.000011 0.000025 0.001194 -0.000359 -0.000011 -0.000359 0.000517 
0.000530 0.000015 -0.000006 0.000015 0.001202 -0.000351 -0.000006 -0.000351 0.000533 
0.000537 -0.000007 -0.000016 -0.000007 0.001197 -0.000343 -0.000016 -0.000343 0.000541 
0.000543 -0.000030 -0.000028 -0.000030 0.001185 -0.000335 -0.000028 -0.000335 0.000547 
0.000547 -0.000050 -0.000038 -0.000050 0.001174 -0.000327 -0.000038 -0.000327 0.000556 
0.000551 -0.000065 -0.000045 -0.000065 0.001163 -0.000317 -0.000045 -0.000317 0.000566 
0.000558 -0.000075 -0.000041 -0.000075 0.001153 -0.000303 -0.000041 -0.000303 0.000574 
0.000571 -0.000084 -0.000021 -0.000084 0.001145 -0.000279 -0.000021 -0.000279 0.000576 
0.000585 -0.000095 0.000002 -0.000095 0.001140 -0.000255 0.000002 -0.000255 0.000578 
0.000600 -0.000109 0.000026 -0.000109 0.001136 -0.000234 0.000026 -0.000234 0.000581 
0.000615 -0.000127 0.000052 -0.000127 0.001133 -0.000219 0.000052 -0.000219 0.000583 
0.000622 -0.000149 0.000067 -0.000149 0.001098 -0.000229 0.000067 -0.000229 0.000568 
0.000627 -0.000172 0.000082 -0.000172 0.001061 -0.000242 0.000082 -0.000242 0.000547 
0.000630 -0.000194 0.000098 -0.000194 0.001029 -0.000254 0.000098 -0.000254 0.000524 
0.000630 -0.000213 0.000116 -0.000213 0.001002 -0.000266 0.000116 -0.000266 0.000502 
0.000636 -0.000223 0.000130 -0.000223 0.000983 -0.000273 0.000130 -0.000273 0.000488 
0.000641 -0.000228 0.000139 -0.000228 0.000969 -0.000272 0.000139 -0.000272 0.000484 
0.000643 -0.000234 0.000145 -0.000234 0.000961 -0.000267 0.000145 -0.000267 0.000486 
0.000643 -0.000243 0.000145 -0.000243 0.000960 -0.000260 0.000145 -0.000260 0.000495 
0.000644 -0.000259 0.000141 -0.000259 0.000970 -0.000254 0.000141 -0.000254 0.000506 
0.000681 -0.000280 0.000154 -0.000280 0.000944 -0.000259 0.000154 -0.000259 0.000505 
0.000736 -0.000311 0.000183 -0.000311 0.000911 -0.000267 0.000183 -0.000267 0.000497 
0.000775 -0.000332 0.000215 -0.000332 0.000875 -0.000266 0.000215 -0.000266 0.000507 
0.000802 -0.000343 0.000244 -0.000343 0.000843 -0.000263 0.000244 -0.000263 0.000521 
0.000819 -0.000342 0.000270 -0.000342 0.000811 -0.000258 0.000270 -0.000258 0.000531 
0.000821 -0.000313 0.000286 -0.000313 0.000782 -0.000244 0.000286 -0.000244 0.000538 
0.000826 -0.000274 0.000299 -0.000274 0.000756 -0.000225 0.000299 -0.000225 0.000542 
0.000833 -0.000229 0.000309 -0.000229 0.000732 -0.000202 0.000309 -0.000202 0.000545 
0.000845 -0.000178 0.000314 -0.000178 0.000723 -0.000178 0.000314 -0.000178 0.000559 
0.000866 -0.000131 0.000324 -0.000131 0.000714 -0.000154 0.000324 -0.000154 0.000559 
0.000891 -0.000096 0.000340 -0.000096 0.000703 -0.000133 0.000340 -0.000133 0.000555 
0.000891 -0.000092 0.000362 -0.000092 0.000712 -0.000122 0.000362 -0.000122 0.000574 
0.000894 -0.000081 0.000382 -0.000081 0.000728 -0.000107 0.000382 -0.000107 0.000586 
0.000871 -0.000053 0.000361 -0.000053 0.000735 -0.000092 0.000361 -0.000092 0.000602 
0.000838 -0.000015 0.000329 -0.000015 0.000736 -0.000086 0.000329 -0.000086 0.000616 
0.000814 0.000028 0.000303 0.000028 0.000734 -0.000089 0.000303 -0.000089 0.000630 
0.000801 0.000073 0.000284 0.000073 0.000730 -0.000099 0.000284 -0.000099 0.000643 
0.000795 0.000115 0.000269 0.000115 0.000720 -0.000112 0.000269 -0.000112 0.000653 
0.000766 0.000108 0.000271 0.000108 0.000697 -0.000097 0.000271 -0.000097 0.000654 
0.000730 0.000101 0.000277 0.000101 0.000676 -0.000072 0.000277 -0.000072 0.000657 
0.000690 0.000106 0.000272 0.000106 0.000658 -0.000050 0.000272 -0.000050 0.000653 
0.000646 0.000123 0.000256 0.000123 0.000643 -0.000029 0.000256 -0.000029 0.000646 
0.000599 0.000150 0.000229 0.000150 0.000634 -0.000009 0.000229 -0.000009 0.000641 
0.000565 0.000167 0.000194 0.000167 0.000645 0.000007 0.000194 0.000007 0.000646 
0.000596 0.000139 0.000181 0.000139 0.000669 0.000009 0.000181 0.000009 0.000659 
0.000640 0.000118 0.000173 0.000118 0.000709 0.000012 0.000173 0.000012 0.000683 
0.000685 0.000106 0.000168 0.000106 0.000759 0.000018 0.000168 0.000018 0.000714 
0.000725 0.000103 0.000167 0.000103 0.000812 0.000025 0.000167 0.000025 0.000743 
0.000752 0.000106 0.000171 0.000106 0.000857 0.000035 0.000171 0.000035 0.000764 
0.000758 0.000114 0.000176 0.000114 0.000871 0.000048 0.000176 0.000048 0.000765 
0.000746 0.000123 0.000173 0.000123 0.000841 0.000052 0.000173 0.000052 0.000756 
0.000740 0.000126 0.000154 0.000126 0.000817 0.000047 0.000154 0.000047 0.000750 
0.000813 0.000128 0.000112 0.000128 0.000846 0.000032 0.000112 0.000032 0.000767 
0.000872 0.000135 0.000071 0.000135 0.000869 0.000012 0.000071 0.000012 0.000778 
0.000918 0.000148 0.000031 0.000148 0.000889 -0.000008 0.000031 -0.000008 0.000786 
0.000956 0.000155 0.000001 0.000155 0.000903 -0.000001 0.000001 -0.000001 0.000794 
0.000984 0.000157 -0.000024 0.000157 0.000908 0.000009 -0.000024 0.000009 0.000800 
0.001003 0.000159 -0.000046 0.000159 0.000905 0.000011 -0.000046 0.000011 0.000806 
0.001017 0.000163 -0.000065 0.000163 0.000896 0.000008 -0.000065 0.000008 0.000807 
0.001032 0.000166 -0.000077 0.000166 0.000888 0.000001 -0.000077 0.000001 0.000802 
0.001022 0.000136 -0.000083 0.000136 0.000884 0.000001 -0.000083 0.000001 0.000773 
0.001020 0.000113 -0.000091 0.000113 0.000882 -0.000002 -0.000091 -0.000002 0.000752 
0.001025 0.000101 -0.000100 0.000101 0.000882 -0.000010 -0.000100 -0.000010 0.000738 