# vtk DataFile Version 2.0
matlabPolyData
ASCII
DATASET POLYDATA
POINTS 19174 float
6.001670 67.764100 -12.761700
6.150170 67.382300 -12.476100
6.285830 66.971300 -12.226600
6.414230 66.540300 -12.008700
6.537290 66.093900 -11.820600
6.658480 65.627200 -11.688600
6.782900 65.155400 -11.581900
6.911020 64.676700 -11.517200
7.040130 64.195100 -11.483500
7.166700 63.711400 -11.477400
7.291080 63.227100 -11.473300
7.409280 62.741300 -11.474200
7.524810 62.254800 -11.477500
7.626670 61.765400 -11.486900
7.719390 61.274300 -11.496800
7.795970 60.780300 -11.507400
7.859190 60.284500 -11.518400
7.908850 59.787100 -11.527900
7.958120 59.289600 -11.535300
8.006560 58.791900 -11.538400
8.054190 58.294200 -11.537500
8.099930 57.796300 -11.531800
8.144430 57.298400 -11.525600
8.186380 56.800200 -11.518500
8.225780 56.301800 -11.510800
8.265310 55.803400 -11.504000
8.309350 55.305400 -11.499400
8.362410 54.808200 -11.499100
8.424090 54.312100 -11.502700
8.494130 53.817100 -11.507800
8.563290 53.321900 -11.508700
8.630770 52.826500 -11.501200
8.696820 52.331200 -11.485400
8.763510 51.836400 -11.458400
8.832870 51.342100 -11.428900
8.907520 50.848900 -11.394400
8.987520 50.357000 -11.355000
9.078570 49.867500 -11.308600
9.176370 49.379600 -11.260100
9.287740 48.895000 -11.208000
9.412440 48.413900 -11.153900
9.554570 47.937400 -11.101700
9.699450 47.461300 -11.053200
9.850160 46.986300 -11.012700
10.010600 46.513600 -10.985800
10.179100 46.043000 -10.970900
10.353100 45.574500 -10.968400
10.539400 45.111500 -10.994200
10.748700 44.665200 -11.077700
10.967500 44.230400 -11.187600
11.204400 43.827200 -11.364500
11.443000 43.431800 -11.555700
11.684600 43.050900 -11.771000
11.928200 42.680800 -12.002600
12.173300 42.317800 -12.243700
12.416800 41.955700 -12.487800
12.658800 41.592400 -12.731700
12.896800 41.226200 -12.975000
13.118600 40.851700 -13.221100
13.335200 40.475300 -13.468700
13.552100 40.099000 -13.716600
13.774600 39.725100 -13.962700
14.008900 39.355000 -14.203800
14.254100 38.987500 -14.437800
14.508500 38.620500 -14.662700
14.761500 38.246300 -14.877200
15.000400 37.862600 -15.090800
15.234700 37.475200 -15.303000
15.464600 37.082400 -15.509900
15.699700 36.687100 -15.705900
15.955700 36.294800 -15.880700
16.220100 35.905300 -16.048800
16.501400 35.522000 -16.203100
16.799300 35.145900 -16.343200
17.113800 34.778400 -16.469500
17.454600 34.426300 -16.568900
17.807100 34.083000 -16.656000
18.191700 33.767700 -16.707400
18.581100 33.457100 -16.749200
18.975600 33.150900 -16.774400
19.362900 32.834800 -16.781500
19.742800 32.510100 -16.789700
20.110600 32.171600 -16.800700
20.462200 31.817000 -16.826500
20.807400 31.457200 -16.860700
21.140400 31.087900 -16.912100
21.462600 30.711800 -16.981000
21.782700 30.336700 -17.063300
22.101900 29.963000 -17.155200
22.420300 29.594700 -17.268200
22.729800 29.235000 -17.425900
23.030900 28.882600 -17.613300
23.327700 28.534100 -17.814000
23.618700 28.196100 -18.039600
23.907100 27.871500 -18.287200
24.196200 27.564000 -18.554900
24.492800 27.291500 -18.851100
24.787900 27.035100 -19.162900
25.078500 26.782500 -19.481700
25.361500 26.539200 -19.814400
25.638500 26.309500 -20.161300
25.911300 26.100200 -20.524000
26.180800 25.921600 -20.904800
26.440400 25.793400 -21.312400
26.693800 25.682500 -21.728500
26.932700 25.615800 -22.162600
27.169100 25.562200 -22.599700
27.402100 25.558900 -23.042100
27.632100 25.572200 -23.485500
27.848600 25.651600 -23.929200
28.056000 25.761700 -24.369400
28.243000 25.934600 -24.798300
28.405300 26.173300 -25.206600
28.563700 26.421200 -25.610800
28.707300 26.700200 -26.000000
28.846300 26.989200 -26.383400
28.976500 27.298000 -26.754300
29.102400 27.616400 -27.118600
29.226200 27.949700 -27.470200
29.346800 28.298700 -27.807200
29.457800 28.661800 -28.132400
29.556600 29.039900 -28.444000
29.643700 29.432000 -28.741600
29.725200 29.830400 -29.032400
29.796600 30.241100 -29.308600
29.860500 30.656700 -29.579000
29.914600 31.077300 -29.843800
29.955900 31.502600 -30.103400
29.990000 31.930100 -30.360500
30.007900 32.366400 -30.603800
30.025700 32.811900 -30.829900
30.045100 33.262300 -31.046100
30.074800 33.724800 -31.233500
30.107500 34.190200 -31.413300
30.123500 34.657700 -31.589900
30.126200 35.125000 -31.767600
30.115600 35.590900 -31.948500
30.098300 36.055800 -32.131900
30.065000 36.511100 -32.335500
30.018900 36.954300 -32.561800
29.952800 37.377500 -32.818600
29.874000 37.787300 -33.094000
29.765000 38.166100 -33.401600
29.636500 38.539900 -33.707800
29.466200 38.888500 -34.022600
29.263300 39.210700 -34.346000
29.032200 39.507000 -34.675300
28.788700 39.791500 -35.006600
28.534600 40.069800 -35.335100
28.293900 40.367500 -35.656300
28.070400 40.685100 -35.971000
27.866800 41.020800 -36.280300
27.683100 41.371000 -36.586000
27.509100 41.727300 -36.890600
27.350200 42.094500 -37.190400
27.185600 42.475100 -37.469800
26.998000 42.863200 -37.723000
26.795700 43.253000 -37.961800
26.586300 43.643100 -38.194000
26.361900 44.030200 -38.417200
26.131200 44.416300 -38.635500
25.894100 44.805000 -38.842000
25.653700 45.196500 -39.039300
25.402800 45.598900 -39.197800
25.112900 45.999300 -39.263800
1.283800 54.647900 -18.171800
1.578980 54.628300 -17.770100
1.881520 54.568100 -17.376700
2.178580 54.490900 -16.982000
2.468220 54.387500 -16.588800
2.739170 54.230500 -16.200100
2.987390 54.024100 -15.819100
3.213570 53.776900 -15.448600
3.414010 53.481400 -15.098600
3.604260 53.134400 -14.793000
3.783690 52.752700 -14.528200
3.943580 52.323200 -14.330800
4.089950 51.870700 -14.177300
4.234520 51.410900 -14.044600
4.384960 50.954800 -13.905500
4.551540 50.509800 -13.750100
4.723140 50.068000 -13.590900
4.911510 49.636900 -13.421600
5.112770 49.214200 -13.246800
5.339430 48.808100 -13.063900
5.591480 48.417800 -12.879000
5.843470 48.027100 -12.695100
6.087740 47.630600 -12.513000
6.325460 47.230000 -12.331500
6.551100 46.821900 -12.151400
6.767580 46.408100 -11.972900
6.971510 45.985900 -11.799000
7.170330 45.560500 -11.627200
7.369310 45.134600 -11.456800
7.570420 44.707900 -11.291300
7.777920 44.280600 -11.135500
8.006520 43.853000 -11.013200
8.254140 43.423700 -10.947400
8.509860 42.996900 -10.912200
8.783030 42.580700 -10.941800
9.075020 42.192700 -11.061000
9.365920 41.821000 -11.226000
9.651190 41.452700 -11.406700
9.926670 41.091500 -11.615300
10.193900 40.737200 -11.845300
10.454900 40.390000 -12.092800
10.712600 40.055700 -12.360800
10.972200 39.725300 -12.631800
11.234900 39.401600 -12.907900
11.489300 39.078000 -13.191600
11.741900 38.754000 -13.476600
11.998100 38.432700 -13.761400
12.265700 38.118700 -14.043900
12.533800 37.803200 -14.324300
12.801000 37.482200 -14.599100
13.062400 37.150700 -14.866800
13.303600 36.798000 -15.126500
13.538700 36.441100 -15.385900
13.766900 36.079400 -15.645000
14.003000 35.720200 -15.900300
14.243900 35.361600 -16.152100
14.493400 35.003200 -16.395500
14.749600 34.642800 -16.628700
15.010700 34.273800 -16.842500
15.267000 33.892600 -17.039900
15.521900 33.506300 -17.229000
15.775900 33.111400 -17.400400
16.034600 32.711200 -17.551400
16.336100 32.329600 -17.667600
16.668100 31.970600 -17.764000
17.045200 31.648600 -17.823100
17.436900 31.339900 -17.858100
17.820200 31.020300 -17.885600
18.179000 30.673100 -17.912600
18.546100 30.334000 -17.930700
18.918000 30.000500 -17.948300
19.298300 29.676500 -17.968000
19.683800 29.359300 -17.995500
20.071700 29.046500 -18.035900
20.466800 28.746400 -18.097600
20.863200 28.454400 -18.184900
21.258000 28.165700 -18.287600
21.649800 27.886400 -18.422400
22.037300 27.620100 -18.591300
22.420000 27.371400 -18.794600
22.793900 27.151200 -19.042900
23.162400 26.932300 -19.300200
23.518900 26.716900 -19.576600
23.862200 26.505600 -19.872200
24.192800 26.297400 -20.184000
24.513300 26.089900 -20.506800
24.823800 25.879300 -20.837300
25.125300 25.678400 -21.181900
25.420100 25.485100 -21.536200
25.697900 25.327100 -21.920700
25.970400 25.189000 -22.315800
26.230200 25.100800 -22.732500
26.468600 25.110300 -23.171900
26.698900 25.154100 -23.612100
26.902400 25.305700 -24.042900
27.095900 25.486900 -24.465600
27.257800 25.747000 -24.860700
27.412200 26.025500 -25.246200
27.564800 26.310300 -25.627700
27.711400 26.609900 -26.000000
27.848000 26.927900 -26.360700
27.971700 27.264900 -26.708400
28.088400 27.611400 -27.049500
28.194600 27.972400 -27.378800
28.302000 28.336600 -27.704000
28.403400 28.706700 -28.024500
28.500100 29.080600 -28.342000
28.573100 29.471300 -28.645100
28.636400 29.868400 -28.942300
28.682800 30.275700 -29.228600
28.715800 30.685200 -29.513500
28.737900 31.096200 -29.797400
28.745600 31.508800 -30.079600
28.745200 31.922000 -30.361100
28.727300 32.338500 -30.637200
28.704900 32.758700 -30.907200
28.681400 33.181100 -31.173600
28.658700 33.608800 -31.431700
28.634800 34.037400 -31.688000
28.589200 34.456700 -31.956200
28.522200 34.863100 -32.239300
28.430200 35.252300 -32.538800
28.311100 35.622000 -32.853200
28.178300 35.981700 -33.174000
28.024300 36.329400 -33.498600
27.858000 36.674000 -33.820500
27.685100 37.017400 -34.140100
27.496600 37.367100 -34.443600
27.303200 37.719100 -34.741300
27.100700 38.073800 -35.029800
26.891900 38.430400 -35.311300
26.684800 38.792400 -35.587100
26.482400 39.161700 -35.856500
26.282800 39.534800 -36.122900
26.091600 39.916100 -36.383800
25.900700 40.298200 -36.643600
25.705800 40.679200 -36.902200
25.507900 41.059200 -37.159900
25.302300 41.438800 -37.412100
25.089900 41.818900 -37.658000
24.866900 42.203300 -37.887100
24.636200 42.588200 -38.107600
24.397900 42.972000 -38.321700
24.152500 43.353800 -38.531500
23.903700 43.734400 -38.739400
23.638100 44.123800 -38.905200
23.364600 44.515100 -39.054000
23.061200 44.899100 -39.154800
22.747600 45.279000 -39.240400
22.422800 45.646800 -39.335400
22.085400 45.996600 -39.451700
21.735100 46.321800 -39.596900
21.375800 46.620400 -39.773900
21.013400 46.896600 -39.979100
20.651100 47.163700 -40.196800
20.290800 47.416600 -40.433900
19.931600 47.662800 -40.679400
[...]
POINT_DATA 19174 
TENSORS tensor float
0.000927 -0.000009 0.000052 -0.000009 0.000998 -0.000054 0.000052 -0.000054 0.000958 
0.000903 -0.000021 0.000035 -0.000021 0.000982 -0.000060 0.000035 -0.000060 0.000922 
0.000882 -0.000030 0.000021 -0.000030 0.000973 -0.000063 0.000021 -0.000063 0.000892 
0.000862 -0.000037 0.000010 -0.000037 0.000969 -0.000064 0.000010 -0.000064 0.000866 
0.000842 -0.000042 0.000001 -0.000042 0.000968 -0.000062 0.000001 -0.000062 0.000842 
0.000828 -0.000051 -0.000008 -0.000051 0.000986 -0.000057 -0.000008 -0.000057 0.000822 
0.000824 -0.000065 -0.000021 -0.000065 0.001028 -0.000049 -0.000021 -0.000049 0.000806 
0.000821 -0.000077 -0.000034 -0.000077 0.001072 -0.000039 -0.000034 -0.000039 0.000792 
0.000820 -0.000088 -0.000049 -0.000088 0.001116 -0.000029 -0.000049 -0.000029 0.000780 
0.000823 -0.000093 -0.000057 -0.000093 0.001152 -0.000020 -0.000057 -0.000020 0.000772 
0.000838 -0.000092 -0.000056 -0.000092 0.001176 -0.000016 -0.000056 -0.000016 0.000766 
0.000850 -0.000089 -0.000049 -0.000089 0.001196 -0.000011 -0.000049 -0.000011 0.000762 
0.000856 -0.000086 -0.000040 -0.000086 0.001208 -0.000004 -0.000040 -0.000004 0.000759 
0.000854 -0.000080 -0.000033 -0.000080 0.001223 0.000002 -0.000033 0.000002 0.000753 
0.000841 -0.000071 -0.000029 -0.000071 0.001247 0.000006 -0.000029 0.000006 0.000744 
0.000833 -0.000062 -0.000025 -0.000062 0.001271 0.000008 -0.000025 0.000008 0.000736 
0.000828 -0.000054 -0.000022 -0.000054 0.001295 0.000010 -0.000022 0.000010 0.000728 
0.000823 -0.000049 -0.000020 -0.000049 0.001309 0.000009 -0.000020 0.000009 0.000718 
0.000810 -0.000049 -0.000019 -0.000049 0.001303 0.000004 -0.000019 0.000004 0.000706 
0.000797 -0.000049 -0.000018 -0.000049 0.001299 -0.000000 -0.000018 -0.000000 0.000694 
0.000784 -0.000049 -0.000017 -0.000049 0.001296 -0.000005 -0.000017 -0.000005 0.000681 
0.000775 -0.000048 -0.000014 -0.000048 0.001295 -0.000009 -0.000014 -0.000009 0.000668 
0.000772 -0.000046 -0.000010 -0.000046 0.001297 -0.000009 -0.000010 -0.000009 0.000657 
0.000769 -0.000044 -0.000005 -0.000044 0.001299 -0.000010 -0.000005 -0.000010 0.000646 
0.000767 -0.000041 -0.000001 -0.000041 0.001301 -0.000011 -0.000001 -0.000011 0.000635 
0.000765 -0.000043 0.000001 -0.000043 0.001304 -0.000009 0.000001 -0.000009 0.000622 
0.000765 -0.000053 -0.000003 -0.000053 0.001306 -0.000004 -0.000003 -0.000004 0.000609 
0.000764 -0.000064 -0.000008 -0.000064 0.001306 0.000002 -0.000008 0.000002 0.000598 
0.000761 -0.000073 -0.000013 -0.000073 0.001305 0.000006 -0.000013 0.000006 0.000589 
0.000751 -0.000080 -0.000018 -0.000080 0.001305 0.000005 -0.000018 0.000005 0.000585 
0.000729 -0.000081 -0.000021 -0.000081 0.001307 -0.000008 -0.000021 -0.000008 0.000586 
0.000707 -0.000084 -0.000024 -0.000084 0.001311 -0.000021 -0.000024 -0.000021 0.000585 
0.000684 -0.000086 -0.000025 -0.000086 0.001318 -0.000033 -0.000025 -0.000033 0.000582 
0.000661 -0.000094 -0.000024 -0.000094 0.001333 -0.000045 -0.000024 -0.000045 0.000579 
0.000637 -0.000109 -0.000018 -0.000109 0.001359 -0.000055 -0.000018 -0.000055 0.000576 
0.000613 -0.000126 -0.000011 -0.000126 0.001385 -0.000065 -0.000011 -0.000065 0.000572 
0.000587 -0.000144 -0.000003 -0.000144 0.001408 -0.000074 -0.000003 -0.000074 0.000568 
0.000568 -0.000165 0.000005 -0.000165 0.001420 -0.000084 0.000005 -0.000084 0.000567 
0.000570 -0.000191 0.000007 -0.000191 0.001410 -0.000090 0.000007 -0.000090 0.000576 
0.000571 -0.000218 0.000008 -0.000218 0.001402 -0.000096 0.000008 -0.000096 0.000584 
0.000572 -0.000247 0.000007 -0.000247 0.001397 -0.000099 0.000007 -0.000099 0.000592 
0.000574 -0.000271 0.000001 -0.000271 0.001393 -0.000097 0.000001 -0.000097 0.000601 
0.000579 -0.000280 -0.000018 -0.000280 0.001381 -0.000087 -0.000018 -0.000087 0.000613 
0.000585 -0.000289 -0.000038 -0.000289 0.001368 -0.000077 -0.000038 -0.000077 0.000623 
0.000593 -0.000296 -0.000060 -0.000296 0.001352 -0.000067 -0.000060 -0.000067 0.000632 
0.000603 -0.000302 -0.000083 -0.000302 0.001330 -0.000055 -0.000083 -0.000055 0.000640 
0.000614 -0.000295 -0.000106 -0.000295 0.001273 -0.000025 -0.000106 -0.000025 0.000648 
0.000622 -0.000287 -0.000132 -0.000287 0.001212 0.000006 -0.000132 0.000006 0.000658 
0.000633 -0.000276 -0.000162 -0.000276 0.001148 0.000037 -0.000162 0.000037 0.000679 
0.000646 -0.000265 -0.000194 -0.000265 0.001086 0.000071 -0.000194 0.000071 0.000708 
0.000667 -0.000257 -0.000204 -0.000257 0.001057 0.000110 -0.000204 0.000110 0.000732 
0.000691 -0.000252 -0.000207 -0.000252 0.001036 0.000150 -0.000207 0.000150 0.000748 
0.000710 -0.000254 -0.000211 -0.000254 0.001021 0.000187 -0.000211 0.000187 0.000759 
0.000726 -0.000262 -0.000218 -0.000262 0.001010 0.000223 -0.000218 0.000223 0.000763 
0.000739 -0.000275 -0.000228 -0.000275 0.001005 0.000258 -0.000228 0.000258 0.000758 
0.000747 -0.000279 -0.000231 -0.000279 0.001015 0.000282 -0.000231 0.000282 0.000744 
0.000752 -0.000281 -0.000238 -0.000281 0.001031 0.000304 -0.000238 0.000304 0.000730 
0.000752 -0.000283 -0.000250 -0.000283 0.001054 0.000326 -0.000250 0.000326 0.000714 
0.000736 -0.000261 -0.000236 -0.000261 0.001059 0.000342 -0.000236 0.000342 0.000705 
0.000726 -0.000242 -0.000218 -0.000242 0.001048 0.000353 -0.000218 0.000353 0.000694 
0.000740 -0.000238 -0.000188 -0.000238 0.001007 0.000340 -0.000188 0.000340 0.000688 
0.000760 -0.000245 -0.000162 -0.000245 0.000969 0.000324 -0.000162 0.000324 0.000687 
0.000775 -0.000259 -0.000145 -0.000259 0.000945 0.000315 -0.000145 0.000315 0.000684 
0.000786 -0.000280 -0.000135 -0.000280 0.000934 0.000311 -0.000135 0.000311 0.000678 
0.000792 -0.000307 -0.000130 -0.000307 0.000938 0.000311 -0.000130 0.000311 0.000667 
0.000783 -0.000319 -0.000122 -0.000319 0.000960 0.000318 -0.000122 0.000318 0.000659 
0.000768 -0.000311 -0.000106 -0.000311 0.000989 0.000325 -0.000106 0.000325 0.000660 
0.000760 -0.000300 -0.000089 -0.000300 0.001005 0.000317 -0.000089 0.000317 0.000667 
0.000761 -0.000301 -0.000076 -0.000301 0.001012 0.000305 -0.000076 0.000305 0.000665 
0.000768 -0.000314 -0.000068 -0.000314 0.001013 0.000289 -0.000068 0.000289 0.000651 
0.000784 -0.000314 -0.000053 -0.000314 0.000981 0.000259 -0.000053 0.000259 0.000641 
0.000809 -0.000304 -0.000038 -0.000304 0.000951 0.000233 -0.000038 0.000233 0.000640 
0.000840 -0.000294 -0.000027 -0.000294 0.000934 0.000212 -0.000027 0.000212 0.000640 
0.000876 -0.000283 -0.000021 -0.000283 0.000928 0.000193 -0.000021 0.000193 0.000643 
0.000917 -0.000268 -0.000020 -0.000268 0.000930 0.000172 -0.000020 0.000172 0.000648 
0.000947 -0.000248 -0.000007 -0.000248 0.000922 0.000151 -0.000007 0.000151 0.000645 
0.000973 -0.000225 0.000013 -0.000225 0.000902 0.000134 0.000013 0.000134 0.000642 
0.000987 -0.000210 0.000029 -0.000210 0.000879 0.000120 0.000029 0.000120 0.000639 
0.000981 -0.000205 0.000040 -0.000205 0.000863 0.000106 0.000040 0.000106 0.000630 
0.000962 -0.000204 0.000047 -0.000204 0.000850 0.000090 0.000047 0.000090 0.000619 
0.000930 -0.000207 0.000051 -0.000207 0.000842 0.000073 0.000051 0.000073 0.000607 
0.000888 -0.000229 0.000044 -0.000229 0.000834 0.000064 0.000044 0.000064 0.000585 
0.000840 -0.000251 0.000036 -0.000251 0.000809 0.000057 0.000036 0.000057 0.000555 
0.000815 -0.000274 0.000025 -0.000274 0.000813 0.000066 0.000025 0.000066 0.000524 
0.000798 -0.000290 0.000008 -0.000290 0.000830 0.000079 0.000008 0.000079 0.000496 
0.000778 -0.000298 -0.000015 -0.000298 0.000846 0.000091 -0.000015 0.000091 0.000471 
0.000787 -0.000294 -0.000028 -0.000294 0.000866 0.000098 -0.000028 0.000098 0.000469 
0.000804 -0.000287 -0.000039 -0.000287 0.000880 0.000115 -0.000039 0.000115 0.000476 
0.000817 -0.000281 -0.000052 -0.000281 0.000882 0.000140 -0.000052 0.000140 0.000485 
0.000822 -0.000279 -0.000070 -0.000279 0.000866 0.000168 -0.000070 0.000168 0.000495 
0.000784 -0.000279 -0.000089 -0.000279 0.000822 0.000209 -0.000089 0.000209 0.000502 
0.000783 -0.000272 -0.000113 -0.000272 0.000813 0.000238 -0.000113 0.000238 0.000543 
0.000785 -0.000263 -0.000139 -0.000263 0.000809 0.000258 -0.000139 0.000258 0.000588 
0.000784 -0.000254 -0.000166 -0.000254 0.000797 0.000270 -0.000166 0.000270 0.000631 
0.000779 -0.000246 -0.000192 -0.000246 0.000778 0.000270 -0.000192 0.000270 0.000674 
0.000772 -0.000237 -0.000216 -0.000237 0.000750 0.000257 -0.000216 0.000257 0.000719 
0.000772 -0.000229 -0.000233 -0.000229 0.000718 0.000228 -0.000233 0.000228 0.000773 
0.000832 -0.000218 -0.000240 -0.000218 0.000755 0.000221 -0.000240 0.000221 0.000866 
0.000850 -0.000205 -0.000250 -0.000205 0.000773 0.000231 -0.000250 0.000231 0.000916 
0.000834 -0.000193 -0.000261 -0.000193 0.000754 0.000233 -0.000261 0.000233 0.000936 
0.000790 -0.000178 -0.000271 -0.000178 0.000701 0.000225 -0.000271 0.000225 0.000932 
0.000725 -0.000160 -0.000282 -0.000160 0.000615 0.000206 -0.000282 0.000206 0.000911 
0.000647 -0.000136 -0.000293 -0.000136 0.000500 0.000174 -0.000293 0.000174 0.000881 
0.000599 -0.000112 -0.000286 -0.000112 0.000444 0.000136 -0.000286 0.000136 0.000878 
0.000577 -0.000082 -0.000273 -0.000082 0.000431 0.000094 -0.000273 0.000094 0.000895 
0.000593 -0.000059 -0.000265 -0.000059 0.000465 0.000063 -0.000265 0.000063 0.000935 
0.000612 -0.000043 -0.000268 -0.000043 0.000494 0.000034 -0.000268 0.000034 0.000977 
0.000620 -0.000025 -0.000278 -0.000025 0.000500 -0.000008 -0.000278 -0.000008 0.001002 
0.000583 -0.000022 -0.000285 -0.000022 0.000532 -0.000052 -0.000285 -0.000052 0.000988 
0.000546 -0.000006 -0.000281 -0.000006 0.000561 -0.000103 -0.000281 -0.000103 0.000964 
0.000510 0.000019 -0.000265 0.000019 0.000591 -0.000158 -0.000265 -0.000158 0.000936 
0.000475 0.000054 -0.000240 0.000054 0.000618 -0.000217 -0.000240 -0.000217 0.000907 
0.000468 0.000075 -0.000218 0.000075 0.000640 -0.000256 -0.000218 -0.000256 0.000892 
0.000487 0.000079 -0.000203 0.000079 0.000665 -0.000277 -0.000203 -0.000277 0.000887 
0.000497 0.000085 -0.000186 0.000085 0.000694 -0.000308 -0.000186 -0.000308 0.000878 
0.000517 0.000089 -0.000171 0.000089 0.000735 -0.000332 -0.000171 -0.000332 0.000870 
0.000522 0.000099 -0.000156 0.000099 0.000771 -0.000363 -0.000156 -0.000363 0.000854 
0.000527 0.000114 -0.000149 0.000114 0.000806 -0.000388 -0.000149 -0.000388 0.000838 
0.000551 0.000117 -0.000144 0.000117 0.000849 -0.000381 -0.000144 -0.000381 0.000839 
0.000570 0.000113 -0.000129 0.000113 0.000897 -0.000370 -0.000129 -0.000370 0.000838 
0.000576 0.000108 -0.000107 0.000108 0.000941 -0.000363 -0.000107 -0.000363 0.000826 
0.000571 0.000105 -0.000085 0.000105 0.000978 -0.000360 -0.000085 -0.000360 0.000807 
0.000556 0.000104 -0.000064 0.000104 0.001010 -0.000360 -0.000064 -0.000360 0.000783 
0.000537 0.000107 -0.000048 0.000107 0.001036 -0.000364 -0.000048 -0.000364 0.000760 
0.000538 0.000112 -0.000032 0.000112 0.001077 -0.000376 -0.000032 -0.000376 0.000768 
0.000539 0.000111 -0.000013 0.000111 0.001115 -0.000383 -0.000013 -0.000383 0.000774 
0.000539 0.000105 0.000010 0.000105 0.001151 -0.000386 0.000010 -0.000386 0.000781 
0.000539 0.000095 0.000040 0.000095 0.001185 -0.000385 0.000040 -0.000385 0.000790 
0.000538 0.000081 0.000070 0.000081 0.001214 -0.000374 0.000070 -0.000374 0.000797 
0.000536 0.000076 0.000079 0.000076 0.001229 -0.000338 0.000079 -0.000338 0.000787 
0.000530 0.000076 0.000081 0.000076 0.001245 -0.000303 0.000081 -0.000303 0.000770 
0.000523 0.000082 0.000076 0.000082 0.001256 -0.000270 0.000076 -0.000270 0.000748 
0.000519 0.000085 0.000068 0.000085 0.001253 -0.000246 0.000068 -0.000246 0.000729 
0.000531 0.000068 0.000078 0.000068 0.001231 -0.000222 0.000078 -0.000222 0.000741 
0.000545 0.000050 0.000094 0.000050 0.001204 -0.000199 0.000094 -0.000199 0.000759 
0.000557 0.000036 0.000109 0.000036 0.001177 -0.000179 0.000109 -0.000179 0.000775 
0.000568 0.000025 0.000124 0.000025 0.001148 -0.000162 0.000124 -0.000162 0.000788 
0.000574 0.000022 0.000140 0.000022 0.001116 -0.000153 0.000140 -0.000153 0.000797 
0.000577 0.000025 0.000157 0.000025 0.001085 -0.000154 0.000157 -0.000154 0.000804 
0.000582 0.000029 0.000177 0.000029 0.001052 -0.000156 0.000177 -0.000156 0.000812 
0.000590 0.000033 0.000201 0.000033 0.001019 -0.000162 0.000201 -0.000162 0.000823 
0.000603 0.000032 0.000220 0.000032 0.000991 -0.000164 0.000220 -0.000164 0.000835 
0.000611 0.000008 0.000224 0.000008 0.000997 -0.000156 0.000224 -0.000156 0.000837 
0.000617 -0.000020 0.000231 -0.000020 0.000990 -0.000154 0.000231 -0.000154 0.000838 
0.000635 -0.000052 0.000243 -0.000052 0.000962 -0.000160 0.000243 -0.000160 0.000832 
0.000658 -0.000081 0.000262 -0.000081 0.000920 -0.000175 0.000262 -0.000175 0.000824 
0.000683 -0.000107 0.000288 -0.000107 0.000873 -0.000202 0.000288 -0.000202 0.000814 
0.000702 -0.000129 0.000322 -0.000129 0.000829 -0.000238 0.000322 -0.000238 0.000803 
0.000705 -0.000121 0.000300 -0.000121 0.000862 -0.000240 0.000300 -0.000240 0.000795 
0.000702 -0.000118 0.000282 -0.000118 0.000897 -0.000247 0.000282 -0.000247 0.000795 
0.000694 -0.000119 0.000266 -0.000119 0.000936 -0.000261 0.000266 -0.000261 0.000806 
0.000679 -0.000124 0.000253 -0.000124 0.000980 -0.000282 0.000253 -0.000282 0.000826 
0.000660 -0.000135 0.000245 -0.000135 0.001030 -0.000313 0.000245 -0.000313 0.000858 
0.000639 -0.000153 0.000240 -0.000153 0.001094 -0.000351 0.000240 -0.000351 0.000889 
0.000660 -0.000174 0.000232 -0.000174 0.001127 -0.000345 0.000232 -0.000345 0.000849 
0.000695 -0.000187 0.000221 -0.000187 0.001122 -0.000312 0.000221 -0.000312 0.000806 
0.000727 -0.000199 0.000207 -0.000199 0.001110 -0.000275 0.000207 -0.000275 0.000780 
0.000756 -0.000202 0.000191 -0.000202 0.001094 -0.000238 0.000191 -0.000238 0.000774 
0.000782 -0.000196 0.000175 -0.000196 0.001076 -0.000202 0.000175 -0.000202 0.000784 
0.000808 -0.000173 0.000161 -0.000173 0.001058 -0.000171 0.000161 -0.000171 0.000794 
0.000837 -0.000142 0.000145 -0.000142 0.001044 -0.000136 0.000145 -0.000136 0.000802 
0.000872 -0.000107 0.000128 -0.000107 0.001037 -0.000097 0.000128 -0.000097 0.000804 
0.000920 -0.000073 0.000110 -0.000073 0.001039 -0.000055 0.000110 -0.000055 0.000793 
0.000981 -0.000051 0.000087 -0.000051 0.001046 -0.000019 0.000087 -0.000019 0.000768 
0.001045 -0.000031 0.000057 -0.000031 0.001074 0.000018 0.000057 0.000018 0.000768 
0.000710 -0.000062 0.000151 -0.000062 0.000830 0.000046 0.000151 0.000046 0.000815 
0.000697 -0.000066 0.000190 -0.000066 0.000791 0.000030 0.000190 0.000030 0.000813 
0.000650 -0.000077 0.000244 -0.000077 0.000737 0.000016 0.000244 0.000016 0.000800 
0.000598 -0.000087 0.000292 -0.000087 0.000695 0.000004 0.000292 0.000004 0.000789 
0.000620 -0.000085 0.000248 -0.000085 0.000746 -0.000024 0.000248 -0.000024 0.000818 
0.000628 -0.000085 0.000214 -0.000085 0.000787 -0.000047 0.000214 -0.000047 0.000840 
0.000626 -0.000086 0.000191 -0.000086 0.000820 -0.000064 0.000191 -0.000064 0.000855 
0.000617 -0.000085 0.000177 -0.000085 0.000847 -0.000076 0.000177 -0.000076 0.000862 
0.000607 -0.000084 0.000172 -0.000084 0.000873 -0.000085 0.000172 -0.000085 0.000861 
0.000603 -0.000079 0.000165 -0.000079 0.000911 -0.000066 0.000165 -0.000066 0.000835 
0.000600 -0.000076 0.000165 -0.000076 0.000948 -0.000046 0.000165 -0.000046 0.000802 
0.000596 -0.000076 0.000173 -0.000076 0.000974 -0.000033 0.000173 -0.000033 0.000773 
0.000594 -0.000077 0.000187 -0.000077 0.000993 -0.000026 0.000187 -0.000026 0.000748 
0.000598 -0.000084 0.000198 -0.000084 0.001012 -0.000029 0.000198 -0.000029 0.000730 
0.000611 -0.000099 0.000203 -0.000099 0.001036 -0.000046 0.000203 -0.000046 0.000724 
0.000645 -0.000109 0.000198 -0.000109 0.001058 -0.000062 0.000198 -0.000062 0.000732 
0.000685 -0.000118 0.000189 -0.000118 0.001075 -0.000077 0.000189 -0.000077 0.000740 
0.000726 -0.000128 0.000181 -0.000128 0.001088 -0.000093 0.000181 -0.000093 0.000741 
0.000765 -0.000149 0.000190 -0.000149 0.001085 -0.000116 0.000190 -0.000116 0.000720 
0.000803 -0.000170 0.000201 -0.000170 0.001076 -0.000135 0.000201 -0.000135 0.000692 
0.000824 -0.000184 0.000202 -0.000184 0.001067 -0.000151 0.000202 -0.000151 0.000662 
0.000827 -0.000194 0.000197 -0.000194 0.001067 -0.000169 0.000197 -0.000169 0.000640 
0.000820 -0.000199 0.000188 -0.000199 0.001074 -0.000186 0.000188 -0.000186 0.000625 
0.000811 -0.000192 0.000172 -0.000192 0.001084 -0.000199 0.000172 -0.000199 0.000617 
0.000809 -0.000185 0.000157 -0.000185 0.001093 -0.000209 0.000157 -0.000209 0.000612 
0.000814 -0.000179 0.000140 -0.000179 0.001098 -0.000215 0.000140 -0.000215 0.000611 
0.000816 -0.000172 0.000118 -0.000172 0.001102 -0.000211 0.000118 -0.000211 0.000621 
0.000809 -0.000169 0.000096 -0.000169 0.001093 -0.000203 0.000096 -0.000203 0.000640 
0.000798 -0.000170 0.000076 -0.000170 0.001072 -0.000191 0.000076 -0.000191 0.000656 
0.000789 -0.000173 0.000057 -0.000173 0.001050 -0.000173 0.000057 -0.000173 0.000669 
0.000783 -0.000177 0.000038 -0.000177 0.001026 -0.000151 0.000038 -0.000151 0.000679 
0.000785 -0.000185 0.000019 -0.000185 0.001007 -0.000120 0.000019 -0.000120 0.000686 
0.000800 -0.000188 -0.000012 -0.000188 0.001003 -0.000074 -0.000012 -0.000074 0.000682 
0.000811 -0.000192 -0.000042 -0.000192 0.000996 -0.000028 -0.000042 -0.000028 0.000677 
0.000814 -0.000204 -0.000076 -0.000204 0.000983 0.000018 -0.000076 0.000018 0.000666 
0.000810 -0.000222 -0.000119 -0.000222 0.000967 0.000065 -0.000119 0.000065 0.000651 
0.000806 -0.000224 -0.000155 -0.000224 0.000954 0.000114 -0.000155 0.000114 0.000651 
0.000801 -0.000211 -0.000175 -0.000211 0.000950 0.000156 -0.000175 0.000156 0.000659 
0.000799 -0.000205 -0.000195 -0.000205 0.000952 0.000194 -0.000195 0.000194 0.000674 
0.000798 -0.000206 -0.000217 -0.000206 0.000958 0.000229 -0.000217 0.000229 0.000695 
0.000799 -0.000214 -0.000244 -0.000214 0.000965 0.000264 -0.000244 0.000264 0.000721 
0.000800 -0.000228 -0.000278 -0.000228 0.000972 0.000296 -0.000278 0.000296 0.000749 
0.000806 -0.000239 -0.000306 -0.000239 0.000970 0.000313 -0.000306 0.000313 0.000759 
0.000806 -0.000251 -0.000335 -0.000251 0.000967 0.000335 -0.000335 0.000335 0.000761 
0.000786 -0.000229 -0.000337 -0.000229 0.000972 0.000343 -0.000337 0.000343 0.000759 
0.000789 -0.000204 -0.000319 -0.000204 0.000964 0.000327 -0.000319 0.000327 0.000756 
0.000807 -0.000194 -0.000305 -0.000194 0.000943 0.000310 -0.000305 0.000310 0.000754 
0.000824 -0.000194 -0.000289 -0.000194 0.000924 0.000298 -0.000289 0.000298 0.000753 
0.000828 -0.000199 -0.000272 -0.000199 0.000916 0.000297 -0.000272 0.000297 0.000744 
0.000823 -0.000213 -0.000261 -0.000213 0.000915 0.000312 -0.000261 0.000312 0.000721 
0.000806 -0.000230 -0.000252 -0.000230 0.000926 0.000343 -0.000252 0.000343 0.000685 
0.000780 -0.000233 -0.000238 -0.000233 0.000946 0.000370 -0.000238 0.000370 0.000654 
0.000761 -0.000226 -0.000231 -0.000226 0.000961 0.000382 -0.000231 0.000382 0.000643 
0.000755 -0.000217 -0.000216 -0.000217 0.000946 0.000363 -0.000216 0.000363 0.000647 
0.000768 -0.000213 -0.000202 -0.000213 0.000936 0.000330 -0.000202 0.000330 0.000660 
0.000789 -0.000216 -0.000188 -0.000216 0.000934 0.000305 -0.000188 0.000305 0.000668 
0.000813 -0.000223 -0.000172 -0.000223 0.000941 0.000290 -0.000172 0.000290 0.000672 
0.000841 -0.000233 -0.000152 -0.000233 0.000955 0.000285 -0.000152 0.000285 0.000674 
0.000868 -0.000235 -0.000124 -0.000235 0.000976 0.000275 -0.000124 0.000275 0.000676 
0.000887 -0.000219 -0.000085 -0.000219 0.000999 0.000256 -0.000085 0.000256 0.000674 
0.000907 -0.000185 -0.000045 -0.000185 0.001002 0.000225 -0.000045 0.000225 0.000675 
0.000929 -0.000157 -0.000011 -0.000157 0.001001 0.000202 -0.000011 0.000202 0.000668 
0.000950 -0.000133 0.000017 -0.000133 0.000995 0.000183 0.000017 0.000183 0.000652 
0.000973 -0.000114 0.000038 -0.000114 0.000962 0.000165 0.000038 0.000165 0.000657 
0.000993 -0.000106 0.000052 -0.000106 0.000934 0.000150 0.000052 0.000150 0.000666 
0.001004 -0.000111 0.000063 -0.000111 0.000925 0.000138 0.000063 0.000138 0.000670 
0.001007 -0.000127 0.000070 -0.000127 0.000931 0.000128 0.000070 0.000128 0.000671 